 &FCI NORB=  12,NELEC=14,MS2=0,
  ORBSYM=1,1,1,1,1,1,1,1,1,1,1,1,
  ISYM=1,
 &END
0.004855865786443508 1 1 0 0
0.026514853255132753 2 2 0 0
0.08201100231505434 3 3 0 0
0.08958776616703654 4 4 0 0
0.10890899410621618 5 5 0 0
0.1184065381738851 6 6 0 0
0.1263607719554822 7 7 0 0
0.628946276887947 8 8 0 0
0.6344098064534756 9 9 0 0
0.6363096134702553 10 10 0 0
0.6550677243182947 11 11 0 0
0.6645458424212597 12 12 0 0
-1456.2414667515568 0 0 0 0
