 &FCI NORB=  10,NELEC=14,MS2=0,
  ORBSYM=1,1,1,1,1,1,1,1,1,1,
  ISYM=1,
 &END
2.1402371113207366 1 1 1 1
-7.976281135713137e-05 2 1 1 1
1.9890604025029224 2 1 2 1
2.1402539891212355 2 2 1 1
7.97620964645418e-05 2 2 2 1
2.1402708803023547 2 2 2 2
-1.2703451956017076e-05 3 1 1 1
0.21117167907934337 3 1 2 1
4.2327004979442195e-06 3 1 2 2
0.03346714392787639 3 1 3 1
0.2111762038607562 3 2 1 1
4.23286141203183e-06 3 2 2 1
0.2111790116196639 3 2 2 2
0.03346802520173267 3 2 3 2
0.560038398453292 3 3 1 1
-4.799523278808948e-09 3 3 2 1
0.5600388326720658 3 3 2 2
-2.0453021043823072e-07 3 3 3 1
0.010191461144588049 3 3 3 2
0.41971875469381037 3 3 3 3
-0.2113827389838283 4 1 1 1
4.237372177751109e-06 4 1 2 1
-0.21138553419533762 4 1 2 2
1.3434134382254992e-06 4 1 3 1
-0.03350118780646695 4 1 3 2
-0.010202534048041677 4 1 3 3
0.03353500002188396 4 1 4 1
4.237623676753288e-06 4 2 1 1
-0.21139469424880952 4 2 2 1
-1.2716528780459813e-05 4 2 2 2
-0.03350117482790766 4 2 3 1
-1.3434193466312083e-06 4 2 3 2
-2.0442984084234964e-07 4 2 3 3
0.03353589145815259 4 2 4 2
1.640063722907481e-05 4 3 1 1
-0.40898928021286574 4 3 2 1
-1.6400759061313552e-05 4 3 2 2
-0.010202640652303249 4 3 3 1
-2.045741923934613e-07 4 3 3 2
3.163465517319608e-09 4 3 3 3
-2.0479737252408758e-07 4 3 4 1
0.010216816880591681 4 3 4 2
0.26852819215561974 4 3 4 3
0.5604403095457785 4 4 1 1
4.855761237543277e-09 4 4 2 1
0.56044078782275 4 4 2 2
-2.0473333149639839e-07 4 4 3 1
0.010213507599724277 4 4 3 2
0.41982177804574594 4 4 3 3
-0.010222742944048117 4 4 4 1
-2.0507491525247057e-07 4 4 4 2
-3.293531170012187e-09 4 4 4 3
0.4199473422665133 4 4 4 4
7.263099169205157e-08 5 1 1 1
-0.0006129171404004473 5 1 2 1
2.3228251928299973e-08 5 1 2 2
-0.00017609248334980585 5 1 3 1
2.1574124795670224e-08 5 1 3 3
-1.0609121812798312e-08 5 1 4 1
0.0002613893940436831 5 1 4 2
-0.0007466862349123968 5 1 4 3
1.7271840626123525e-08 5 1 4 4
0.011142157514765334 5 1 5 1
-0.0023183363024866332 5 2 1 1
-1.4618253549271085e-08 5 2 2 1
-0.0023163733906191152 5 2 2 2
-0.00017654390330482995 5 2 3 2
-0.0010957961049145098 5 2 3 3
0.00025968273363106964 5 2 4 1
1.019991670305983e-08 5 2 4 2
-1.2424308908185085e-08 5 2 4 3
-0.0008452013479118452 5 2 4 4
0.0111810905362145 5 2 5 2
0.007981877114581332 5 3 1 1
9.517914180759424e-09 5 3 2 1
0.007979124697318693 5 3 2 2
2.2996500993613736e-09 5 3 3 1
-0.0001173859848044745 5 3 3 2
0.009113814369949926 5 3 3 3
2.1928052704577326e-06 5 3 4 1
-6.74077932664649e-09 5 3 4 3
0.007847696257970936 5 3 4 4
3.17884903908508e-07 5 3 5 1
-0.015850284205841732 5 3 5 2
0.07639625228439512 5 3 5 3
-4.958649908824025e-07 5 4 1 1
0.012364393225152912 5 4 2 1
4.954864668031342e-07 5 4 2 2
0.00016943527314931077 5 4 3 1
4.267317351368781e-09 5 4 3 2
-2.2970740119060418e-09 5 4 3 3
1.1004934899016931e-09 5 4 4 1
-4.7197940355959145e-05 5 4 4 2
-0.010857894029130045 5 4 4 3
1.2655572596831366e-09 5 4 4 4
0.015474589371384411 5 4 5 1
3.102777871655596e-07 5 4 5 2
0.0727063333034587 5 4 5 4
0.5591976852938143 5 5 1 1
0.5591978634904272 5 5 2 2
-1.3042823879261256e-07 5 5 3 1
0.006503116634336778 5 5 3 2
0.42463279077959243 5 5 3 3
-0.006508743031638158 5 5 4 1
-1.304793111715774e-07 5 5 4 2
0.4247266758614492 5 5 4 4
1.4845723505607731e-08 5 5 5 1
-0.0007504877005999779 5 5 5 2
0.00806519840264417 5 5 5 3
0.4585934632659323 5 5 5 5
-1.3553564816529453e-09 6 1 5 3
0.011190191375422237 6 1 6 1
1.353706537575041e-09 6 2 5 4
0.011208758791867644 6 2 6 2
-1.3521403117953943e-09 6 3 5 1
-6.424892650915878e-09 6 3 5 4
3.1679309447224524e-07 6 3 6 1
-0.015795378382929475 6 3 6 2
0.07549520777908919 6 3 6 3
-1.2513023602668507e-09 6 4 2 1
1.3558069864295002e-09 6 4 5 2
-6.446758709105335e-09 6 4 5 3
0.01561792094677289 6 4 6 1
3.13232074333758e-07 6 4 6 2
0.07370603480814139 6 4 6 4
3.512743569083855e-08 6 5 2 1
-2.348799102570916e-08 6 5 4 3
1.0160389481339699e-09 6 5 5 4
-1.857226279430651e-09 6 5 6 1
8.647358995446741e-05 6 5 6 2
-0.00017275295853977433 6 5 6 3
0.02056738052024379 6 5 6 5
0.5581498485552641 6 6 1 1
0.5581499707179189 6 6 2 2
-1.3088938782476744e-07 6 6 3 1
0.006525561701726024 6 6 3 2
0.4230956153226918 6 6 3 3
-0.006530808628572183 6 6 4 1
-1.3090877158325465e-07 6 6 4 2
0.42324274319119504 6 6 4 4
1.7727473789104237e-08 6 6 5 1
-0.0008821015464250953 6 6 5 2
0.00798320888105299 6 6 5 3
0.4158650863346746 6 6 5 5
0.4555739498605591 6 6 6 6
-1.183126760651144e-09 7 1 5 3
0.011190191375422442 7 1 7 1
1.1732137523213286e-09 7 2 5 4
0.011208758791867455 7 2 7 2
-1.1717241268681246e-09 7 3 5 1
-5.537723656827866e-09 7 3 5 4
3.1680000953451803e-07 7 3 7 1
-0.01579537838292935 7 3 7 2
0.07549520777908925 7 3 7 3
1.0242192191603098e-09 7 4 2 1
1.1832921929505193e-09 7 4 5 2
-5.644857911145235e-09 7 4 5 3
0.015617920946773039 7 4 7 1
3.1322515395022094e-07 7 4 7 2
0.07370603480814145 7 4 7 4
3.053870322718841e-08 7 5 2 1
-2.0409661518366627e-08 7 5 4 3
-1.8572740877659038e-09 7 5 7 1
8.647358995446277e-05 7 5 7 2
-0.00017275295853972915 7 5 7 3
0.02056738052024329 7 5 7 5
0.020566156507160527 7 6 7 6
0.5581498485552716 7 7 1 1
0.5581499707179123 7 7 2 2
-1.3089226191288772e-07 7 7 3 1
0.006525561701725969 7 7 3 2
0.42309561532269213 7 7 3 3
-0.006530808628572272 7 7 4 1
-1.3090589290332133e-07 7 7 4 2
0.4232427431911953 7 7 4 4
1.7727126402759287e-08 7 7 5 1
-0.0008821015464251043 7 7 5 2
0.007983208881053007 7 7 5 3
0.4158650863346749 7 7 5 5
0.4144416368462384 7 7 6 6
0.45557394986055977 7 7 7 7
4.4881737609487465e-07 8 1 6 1
-0.011202263385968757 8 1 6 2
0.015788217962144475 8 1 6 3
3.1278627869550657e-07 8 1 6 4
-8.484298952823868e-05 8 1 6 5
1.969554651871084e-08 8 1 7 1
-0.0004915896691174398 8 1 7 2
0.0006928354187499188 8 1 7 3
1.3726501749589289e-08 8 1 7 4
-3.723170551526939e-06 8 1 7 5
0.011217331990042111 8 1 8 1
-0.01118232261427304 8 2 6 1
-4.488187211881822e-07 8 2 6 2
3.1647621481084576e-07 8 2 6 3
-0.015604614385570623 8 2 6 4
-1.387313034809383e-09 8 2 6 5
-0.0004907146069070541 8 2 7 1
-1.9695571808892032e-08 8 2 7 2
1.3888386361316299e-08 8 2 7 3
-0.0006847783307894829 8 2 7 4
0.011195978587894131 8 2 8 2
1.180383235061106e-09 8 3 2 1
0.015591546092269353 8 3 6 1
3.1252824784014366e-07 8 3 6 2
0.07358096430945565 8 3 6 4
0.0006842048540055016 8 3 7 1
1.37151374642085e-08 8 3 7 2
0.003228958349928975 8 3 7 4
3.130353324748425e-07 8 3 8 1
-0.015608247819649791 8 3 8 2
0.0735987258236836 8 3 8 3
1.1546121296887081e-09 8 4 2 1
3.1669070480518785e-07 8 4 6 1
-0.01579930734190174 8 4 6 2
0.07550118068301388 8 4 6 3
-0.0003369731485882903 8 4 6 5
1.3897839942246526e-08 8 4 7 1
-0.0006933220547392512 8 4 7 2
0.003313223332744321 8 4 7 3
-1.4787415088160698e-05 8 4 7 5
0.015822546180932186 8 4 8 1
3.1734450982746215e-07 8 4 8 2
0.07565399181269625 8 4 8 4
-0.0001321329630408113 8 5 6 1
-2.3352550169419817e-09 8 5 6 2
-0.0007966875194838806 8 5 6 4
-3.4720643190706302e-09 8 5 6 6
-5.798399603968603e-06 8 5 7 1
-3.4961091397258596e-05 8 5 7 4
-1.615171488350702e-09 8 5 7 6
-2.813248373128164e-09 8 5 8 1
0.00013407348138650836 8 5 8 2
-0.0006427406106732656 8 5 8 3
0.020425224431746318 8 5 8 5
1.6361800562442186e-05 8 6 1 1
-0.40801907696650774 8 6 2 1
-1.6361784360513498e-05 8 6 2 2
-0.006521082263545694 8 6 3 1
-1.3077833350798318e-07 8 6 3 2
3.2832817575823015e-09 8 6 3 3
-1.3092795067039253e-07 8 6 4 1
0.006531498678042024 8 6 4 2
0.2730738586948388 8 6 4 3
-3.284363558897496e-09 8 6 4 4
-0.000788212321835766 8 6 5 1
-1.340729557634964e-08 8 6 5 2
-6.132339427054878e-09 8 6 5 3
-0.01081988387070686 8 6 5 4
-2.4610032975784487e-08 8 6 6 5
-1.9924977175509585e-08 8 6 7 5
0.3065661779893847 8 6 8 6
7.18006397275317e-07 8 7 1 1
-0.017905128287806577 8 7 2 1
-7.18004856015142e-07 8 7 2 2
-0.0002861650866233923 8 7 3 1
-5.738944428782932e-09 8 7 3 2
-5.745529777748289e-09 8 7 4 1
0.0002866221908334264 8 7 4 2
0.011983318300528411 8 7 4 3
-3.4589173735269515e-05 8 7 5 1
-0.0004748096834209416 8 7 5 4
-2.54491406235286e-09 8 7 6 5
0.012551674150428734 8 7 8 6
0.02109152693641418 8 7 8 7
0.5583265256558054 8 8 1 1
0.5583266483659663 8 8 2 2
-1.3097104715857621e-07 8 8 3 1
0.0065297637208748625 8 8 3 2
0.4231857995253816 8 8 3 3
-0.006534983025193028 8 8 4 1
-1.3099530679280824e-07 8 8 4 2
0.42333382465616876 8 8 4 4
1.7667042643935982e-08 8 8 5 1
-0.0008790706234373775 8 8 5 2
0.007953947377613882 8 8 5 3
0.41594365944893996 8 8 5 5
0.45560848032624723 8 8 6 6
0.0018025625965022245 8 8 7 6
0.4146110865068917 8 8 7 7
0.45580137303800417 8 8 8 8
1.9695540935882805e-08 9 1 6 1
-0.0004915896691174968 9 1 6 2
0.0006928354187500001 9 1 6 3
1.3726459672516126e-08 9 1 6 4
-3.7231705515327577e-06 9 1 6 5
-4.488173818316052e-07 9 1 7 1
0.011202263385968768 9 1 7 2
-0.015788217962144493 9 1 7 3
-3.127863219404281e-07 9 1 7 4
8.484298952824514e-05 9 1 7 5
0.011217331990041924 9 1 9 1
-0.0004907146069071111 9 2 6 1
-1.969556918360489e-08 9 2 6 2
1.388834788926957e-08 9 2 6 3
-0.0006847783307895626 9 2 6 4
0.01118232261427305 9 2 7 1
4.488187238865446e-07 9 2 7 2
-3.1647625435733684e-07 9 2 7 3
0.015604614385570635 9 2 7 4
1.3873029707975847e-09 9 2 7 5
0.011195978587894307 9 2 9 2
1.0474914805418964e-09 9 3 2 1
0.0006842048540055816 9 3 6 1
1.3715098992324402e-08 9 3 6 2
0.003228958349929368 9 3 6 4
-0.01559154609226937 9 3 7 1
-3.1252828738663474e-07 9 3 7 2
-0.07358096430945574 9 3 7 4
3.1302898368529286e-07 9 3 9 1
-0.015608247819649906 9 3 9 2
0.07359872582368353 9 3 9 3
1.3897797864848103e-08 9 4 6 1
-0.0006933220547393316 9 4 6 2
0.003313223332744691 9 4 6 3
-1.4787415088248186e-05 9 4 6 5
-3.1669074805357883e-07 9 4 7 1
0.01579930734190175 9 4 7 2
-0.07550118068301395 9 4 7 3
0.0003369731485883576 9 4 7 5
0.015822546180932047 9 4 9 1
3.1735086350546254e-07 9 4 9 2
0.0756539918126962 9 4 9 4
-5.798399603969551e-06 9 5 6 1
-3.496109139726452e-05 9 5 6 4
0.00013213296304081346 9 5 7 1
2.3352449520831504e-09 9 5 7 2
0.0007966875194838898 9 5 7 4
1.7011206905335406e-09 9 5 7 6
3.0304783312365977e-09 9 5 7 7
-2.813204474473379e-09 9 5 9 1
0.00013407348138650934 9 5 9 2
-0.0006427406106732686 9 5 9 3
0.020425224431746297 9 5 9 5
7.180063608096948e-07 9 6 1 1
-0.017905128287808658 9 6 2 1
-7.180048924824989e-07 9 6 2 2
-0.0002861650866234415 9 6 3 1
-5.738945300535689e-09 9 6 3 2
-5.745528912717585e-09 9 6 4 1
0.00028662219083347575 9 6 4 2
0.011983318300529778 9 6 4 3
-3.4589173735274435e-05 9 6 5 1
-0.0004748096834210042 9 6 5 4
-1.0807380196589071e-09 9 6 6 5
0.01255167415043027 9 6 8 6
-0.019989915033553747 9 6 8 7
0.021091526936414275 9 6 9 6
-1.6361800599828946e-05 9 7 1 1
0.40801907696650813 9 7 2 1
1.6361784323098982e-05 9 7 2 2
0.006521082263545676 9 7 3 1
1.3077833260245753e-07 9 7 3 2
-3.2833007979071738e-09 9 7 3 3
1.3092795157938764e-07 9 7 4 1
-0.0065314986780419994 9 7 4 2
-0.273073858694839 9 7 4 3
3.284344296528019e-09 9 7 4 4
0.0007882123218357691 9 7 5 1
1.3407294930924086e-08 9 7 5 2
6.132345634762837e-09 9 7 5 3
0.01081988387070688 9 7 5 4
2.2772359703400428e-08 9 7 6 5
2.1389153218205067e-08 9 7 7 5
-0.265484736019417 9 7 8 6
-0.012551674150428786 9 7 8 7
-0.012551674150430101 9 7 9 6
0.30656617798938535 9 7 9 7
0.0018025625965020524 9 8 6 6
-0.02049869690967797 9 8 7 6
-0.0018025625965009777 9 8 7 7
0.020589459321396133 9 8 9 8
0.5583265256557983 9 9 1 1
0.5583266483659726 9 9 2 2
-1.309684084117163e-07 9 9 3 1
0.0065297637208748885 9 9 3 2
0.42318579952538116 9 9 3 3
-0.006534983025192939 9 9 4 1
-1.3099794974984202e-07 9 9 4 2
0.4233338246561684 9 9 4 4
1.76673615876464e-08 9 9 5 1
-0.000879070623437371 9 9 5 2
0.007953947377613877 9 9 5 3
0.41594365944893974 9 9 5 5
0.41461108650689116 9 9 6 6
-0.001802562596500535 9 9 7 6
0.45560848032624734 9 9 7 7
0.41462245439521167 9 9 8 8
0.45580137303800355 9 9 9 9
8.626912130888932e-05 10 1 1 1
-2.2233745764457704e-08 10 1 2 1
8.827203692903178e-05 10 1 2 2
-6.815253527676793e-09 10 1 3 1
0.00020923836864651218 10 1 3 2
-0.0009954170171478228 10 1 3 3
-0.00012616546307481354 10 1 4 1
-1.5135298024105716e-09 10 1 4 2
1.4326772853950811e-08 10 1 4 3
-0.0007437235658516116 10 1 4 4
-4.492065491974728e-07 10 1 5 1
0.011221919141174121 10 1 5 2
-0.015909863656687857 10 1 5 3
-3.1122690627438665e-07 10 1 5 4
-0.0006927490603464515 10 1 5 5
-0.0008237930347704862 10 1 6 6
-0.0008237930347704805 10 1 7 7
1.0017774947724231e-09 10 1 8 2
-1.4106370816369398e-09 10 1 8 3
1.4130782116314206e-08 10 1 8 6
-0.0008207224805724632 10 1 8 8
1.1195085632800846e-09 10 1 9 3
-1.4130782767811292e-08 10 1 9 7
-0.0008207224805724721 10 1 9 9
0.011267362896928559 10 1 10 1
-6.139147064657385e-08 10 2 1 1
0.0018574030087453743 10 2 2 1
8.740710159599232e-08 10 2 2 2
0.000210839109049111 10 2 3 1
1.0112810536948378e-08 10 2 3 2
-1.9347607189913654e-08 10 2 3 3
-1.305594813061058e-09 10 2 4 1
-0.00012561694423470252 10 2 4 2
-0.0008895083057920629 10 2 4 3
-1.3570938830163859e-08 10 2 4 4
0.011181980953524939 10 2 5 1
4.4918762320995953e-07 10 2 5 2
-3.1889802807813505e-07 10 2 5 3
0.015532453406880822 10 2 5 4
-1.3320504826876307e-08 10 2 5 5
-1.531842557650747e-08 10 2 6 6
-1.5318816747218744e-08 10 2 7 7
1.000482310442316e-09 10 2 8 1
1.3995972192691661e-09 10 2 8 4
-0.0008875437404796637 10 2 8 6
-3.8948140985164516e-05 10 2 8 7
-1.5255683345120983e-08 10 2 8 8
-1.1159236363273893e-09 10 2 9 4
-3.894814098516944e-05 10 2 9 6
0.0008875437404796657 10 2 9 7
-1.5255324197460533e-08 10 2 9 9
0.011226437509536728 10 2 10 2
1.893178435642337e-07 10 3 1 1
-0.004673775091878432 10 3 2 1
-1.8523668181107122e-07 10 3 2 2
-2.7307881947876614e-06 10 3 3 1
2.3418327741407674e-09 10 3 3 3
2.026010009024558e-09 10 3 4 1
-0.00012005646011987601 10 3 4 2
0.005804492723216217 10 3 4 3
-1.0907627032499811e-09 10 3 4 4
-0.015499509332128385 10 3 5 1
-3.1061945453877277e-07 10 3 5 2
-0.0726694846117816 10 3 5 4
1.673156660962627e-09 10 3 5 5
-1.3967420042522802e-09 10 3 8 1
-6.608296372052966e-09 10 3 8 4
0.005764671675929602 10 3 8 6
0.000252971470505723 10 3 8 7
1.114671981207231e-09 10 3 9 1
5.2845747566057435e-09 10 3 9 4
0.0002529714705057554 10 3 9 6
-0.005764671675929614 10 3 9 7
3.119587421440695e-07 10 3 10 1
-0.015555099795698475 10 3 10 2
0.07272967267216784 10 3 10 3
-0.009067206775064719 10 4 1 1
7.160501751431181e-09 10 4 2 1
-0.009064448667332374 10 4 2 2
4.88013562076733e-05 10 4 3 2
-0.009594940957505982 10 4 3 3
6.676882913774613e-05 10 4 4 1
-5.526617842185888e-09 10 4 4 3
-0.008329908299255385 10 4 4 4
-3.187597224065322e-07 10 4 5 1
0.015903441322852423 10 4 5 2
-0.07652975896222683 10 4 5 3
1.1078649178597466e-09 10 4 5 4
-0.008267283271677695 10 4 5 5
-0.008607073847928377 10 4 6 6
-0.008607073847928385 10 4 7 7
1.4108090717259624e-09 10 4 8 2
-6.733425066468247e-09 10 4 8 3
-6.1034749806315736e-09 10 4 8 6
-0.00857867215994618 10 4 8 8
-1.1198044398990305e-09 10 4 9 2
5.327062823053782e-09 10 4 9 3
6.103468961141112e-09 10 4 9 7
-0.008578672159946192 10 4 9 9
0.01596256573542762 10 4 10 1
3.20141735898026e-07 10 4 10 2
0.07667219368561282 10 4 10 4
-1.6295685561107387e-05 10 5 1 1
0.40636870787087764 10 5 2 1
1.6295535801486016e-05 10 5 2 2
0.006527620947514789 10 5 3 1
1.3091731936726303e-07 10 5 3 2
-3.351816935115437e-09 10 5 3 3
1.310430492122011e-07 10 5 4 1
-0.006537105446159784 10 5 4 2
-0.27129608342817546 10 5 4 3
3.2225030144328315e-09 10 5 4 4
0.0008967849911419715 10 5 5 1
1.5435612202822782e-08 10 5 5 2
6.0353701194712506e-09 10 5 5 3
0.011782590168457521 10 5 5 4
2.4459006781638476e-08 10 5 6 5
2.1250821051930745e-08 10 5 7 5
1.0005626439743337e-09 10 5 8 4
-0.2638355579095336 10 5 8 6
-0.011577913332819365 10 5 8 7
-0.011577913332820964 10 5 9 6
0.26383555790953395 10 5 9 7
-1.6198470103288582e-08 10 5 10 1
0.0010005550183213446 10 5 10 2
-0.006471497289854277 10 5 10 3
7.059338807090254e-09 10 5 10 4
0.30295095489335233 10 5 10 5
3.628990008480997e-09 10 6 5 5
-4.7660758677485663e-05 10 6 6 1
-4.548771629017742e-05 10 6 6 4
-1.2566277863927926e-09 10 6 8 1
4.5817325251978764e-05 10 6 8 2
-0.00019989471635471564 10 6 8 3
-1.424252944084276e-09 10 6 8 4
-0.020463617326847372 10 6 8 5
-3.5809982142268222e-09 10 6 8 8
2.0106047308841777e-06 10 6 9 2
-8.77199313079837e-06 10 6 9 3
-0.0008980062799856717 10 6 9 5
1.3793296218821767e-09 10 6 9 8
0.020551273360967223 10 6 10 6
3.1999736601061813e-09 10 7 5 5
-4.7660758677486483e-05 10 7 7 1
-4.54877162901773e-05 10 7 7 4
2.0106047308837635e-06 10 7 8 2
-8.771993130795664e-06 10 7 8 3
-0.0008980062799853041 10 7 8 5
1.2566375570262594e-09 10 7 9 1
-4.581732525197752e-05 10 7 9 2
0.00019989471635471128 10 7 9 3
1.4243481026658114e-09 10 7 9 4
0.020463617326847445 10 7 9 5
1.8961971664765515e-09 10 7 9 8
-2.810613574922321e-09 10 7 9 9
0.02055127336096724 10 7 10 7
3.6394855750000366e-08 10 8 2 1
-2.432396576041826e-08 10 8 4 3
1.1057899153919038e-09 10 8 5 4
-2.1827958254980987e-09 10 8 6 1
9.21653801924918e-05 10 8 6 2
-0.0006591472157552972 10 8 6 3
-1.392207120312454e-09 10 8 6 4
-0.020610563698006158 10 8 6 5
4.04449950798834e-06 10 8 7 2
-2.8925401102315246e-05 10 8 7 3
-0.0009044547373612572 10 8 7 5
-9.390383303893506e-05 10 8 8 1
-1.7389785462109558e-09 10 8 8 2
-0.0004958205350346946 10 8 8 4
-2.548666243667149e-08 10 8 8 6
-1.111735619126982e-09 10 8 8 7
2.3717953376999703e-08 10 8 9 7
2.5319010853729973e-08 10 8 10 5
0.020703271505093032 10 8 10 8
-2.8989525891049968e-08 10 9 2 1
1.9379773339483443e-08 10 9 4 3
4.044499507983238e-06 10 9 6 2
-2.8925401102267175e-05 10 9 6 3
-0.0009044547373647522 10 9 6 5
2.1828055953116376e-09 10 9 7 1
-9.21653801924887e-05 10 9 7 2
0.0006591472157552555 10 9 7 3
1.3923021741600594e-09 10 9 7 4
0.020610563698006807 10 9 7 5
1.876466298050253e-08 10 9 8 6
2.665233649595213e-09 10 9 8 7
-9.390383303894276e-05 10 9 9 1
-1.739006454076319e-09 10 9 9 2
-0.0004958205350347755 10 9 9 4
-2.0301304968357174e-08 10 9 9 7
-2.0176360506363526e-08 10 9 10 5
0.020703271505092193 10 9 10 9
0.561356700730103 10 10 1 1
0.5613568230420877 10 10 2 2
-1.3141497555782533e-07 10 10 3 1
0.006551366475643324 10 10 3 2
0.4257823259351949 10 10 3 3
-0.006559241143815722 10 10 4 1
-1.3146083005684261e-07 10 10 4 2
0.4258599995031649 10 10 4 4
2.2185313989543654e-08 10 10 5 1
-0.0010712212927298037 10 10 5 2
0.009389286267184528 10 10 5 3
2.6276480175752015e-09 10 10 5 4
0.4598334552142128 10 10 5 5
0.41700397880600026 10 10 6 6
0.4170039788060005 10 10 7 7
3.749132976422059e-09 10 10 8 5
0.41708351847111774 10 10 8 8
-2.973335592175283e-09 10 10 9 5
0.41708351847111735 10 10 9 9
-0.0010144040299783228 10 10 10 1
-1.8850459724086867e-08 10 10 10 2
-1.9082048953109054e-09 10 10 10 3
-0.009604231798845085 10 10 10 4
0.4611189940327728 10 10 10 10
-25.245654642537364 1 1 0 0
-25.245682885109197 2 2 0 0
1.1836100085674288e-05 3 1 0 0
-0.590147038099073 3 2 0 0
-6.348470223882963 3 3 0 0
0.5907314101500085 4 1 0 0
1.1846730225565145e-05 4 2 0 0
-6.348037274719473 4 4 0 0
-3.2266840750443063e-07 5 1 0 0
0.01592648276846709 5 2 0 0
-0.11543941536391146 5 3 0 0
3.6103266732512104e-09 5 4 0 0
-5.983404101566382 5 5 0 0
4.003287764873882e-09 6 4 0 0
-5.958826238870447 6 6 0 0
5.213055804871944e-09 7 4 0 0
-5.958826238864613 7 7 0 0
-5.890409433041716e-09 8 3 0 0
-1.1945488088345874e-09 8 5 0 0
-5.959304963486157 8 8 0 0
-1.4851320819265375e-09 9 2 0 0
3.6569962764520367e-09 9 3 0 0
-5.9593049634687 9 9 0 0
0.00936894889546733 10 1 0 0
1.9929390827649145e-08 10 2 0 0
0.12223299961602493 10 4 0 0
-1.065297000216713e-09 10 6 0 0
-1.3971784084815746e-09 10 7 0 0
-5.991614008261864 10 10 0 0
7.4084809528800015 0 0 0 0
