 &FCI NORB=  10,NELEC=14,MS2=0,
  ORBSYM=1,1,1,1,1,1,
  ISYM=1,
 &END
-13.782152784152684 1 1 0 0
-13.782138285155423 2 2 0 0
-0.5651759944063091 3 3 0 0
-0.5629697422422109 4 4 0 0
-0.10497562444122395 5 5 0 0
-0.1012581204785739 6 6 0 0
-0.10125812047273484 7 7 0 0
-0.10043164465276037 8 8 0 0
-0.10043164463530706 9 9 0 0
-0.09656597114539782 10 10 0 0
0.0 0 0 0 0
